ITEM: TIMESTEP
1000000
ITEM: NUMBER OF ATOMS
399
ITEM: BOX BOUNDS
-120.367 120.367
-120.367 120.367
-120.367 120.367
ITEM: ATOMS id mol type x y z 
393 1 1 31.6648 -12.7244 -48.2959 
235 1 1 27.744 -7.01799 -50.0611 
234 1 1 29.0926 -6.58959 -49.5791 
237 1 1 25.3745 -6.33164 -50.7926 
391 1 1 29.5572 -11.4761 -48.3632 
389 1 1 27.0638 -10.9334 -48.2883 
233 1 1 30.1447 -7.67779 -49.5958 
231 1 1 32.5999 -8.18734 -48.9718 
232 1 1 31.3257 -7.26421 -48.7446 
241 1 1 22.0918 -3.82445 -49.0924 
242 1 1 21.4572 -2.43239 -48.7606 
240 1 1 23.5662 -3.7777 -48.785 
236 1 1 26.7335 -5.92018 -50.0579 
239 1 1 24.2299 -5.01429 -49.2344 
238 1 1 24.4007 -5.22263 -50.7432 
148 1 1 26.9738 -1.0282 -48.1974 
1 1 2 17.6991 1.51582 -52.1043 
2 1 1 16.6547 0.97798 -51.2249 
3 1 1 16.8311 1.59347 -49.8179 
4 1 1 18.2005 1.234 -49.2154 
5 1 1 18.4789 2.33716 -48.2279 
285 1 1 28.3492 -13.0929 -43.3962 
284 1 1 27.127 -12.705 -44.1775 
283 1 1 26.119 -12.1295 -43.1753 
394 1 1 32.8672 -13.029 -47.392 
396 1 1 33.4766 -13.6649 -44.9923 
397 1 1 32.9934 -14.3303 -43.6967 
395 1 1 32.3947 -13.5944 -46.1312 
398 1 1 32.5843 -15.81 -43.8928 
399 1 2 32.0017 -16.5223 -42.7094 
281 1 1 23.9467 -10.9655 -42.8067 
384 1 1 21.7978 -7.68249 -46.9511 
383 1 1 20.451 -7.09143 -47.436 
385 1 1 22.6874 -8.54171 -47.8956 
382 1 1 19.8288 -6.21917 -46.3745 
282 1 1 24.7162 -11.9466 -43.6924 
280 1 1 24.4947 -9.59144 -42.6193 
390 1 1 28.3644 -11.1187 -47.5389 
386 1 1 24.0957 -8.67172 -47.2763 
387 1 1 24.8322 -9.7994 -48.0392 
388 1 1 26.182 -10.1815 -47.3396 
325 1 1 28.2253 -7.08911 -45.8834 
326 1 1 28.7083 -7.90129 -44.7008 
324 1 1 26.9244 -6.31846 -45.607 
392 1 1 30.6503 -12.0268 -47.4972 
327 1 1 30.2096 -8.32714 -44.7792 
329 1 1 32.2527 -9.12498 -44.0153 
230 1 1 33.621 -8.08655 -47.7899 
229 1 1 34.8955 -8.99033 -47.7248 
228 1 1 35.8536 -8.60685 -46.5631 
328 1 1 30.8093 -9.2121 -43.7203 
330 1 1 33.1117 -9.86897 -43.0249 
227 1 1 37.1603 -9.43446 -46.3595 
226 1 1 38.1001 -8.85636 -45.2662 
225 1 1 37.3249 -9.13456 -43.9596 
224 1 1 38.0448 -8.55254 -42.7375 
378 1 1 15.6365 -3.99548 -44.6834 
377 1 1 14.6234 -3.00489 -45.2444 
376 1 1 14.1601 -2.10357 -44.083 
375 1 1 13.2666 -1.10099 -44.7374 
374 1 1 14.0619 -0.0396959 -45.4302 
380 1 1 17.6892 -5.16465 -45.5155 
379 1 1 16.3693 -4.45389 -45.9164 
381 1 1 18.3679 -5.79244 -46.7045 
243 1 1 21.5333 -2.16154 -47.2893 
244 1 1 20.8746 -0.894705 -46.8054 
245 1 1 20.2604 -1.21198 -45.4043 
247 1 1 19.5479 -0.134458 -43.443 
318 1 1 23.9357 -0.723971 -43.084 
150 1 1 29.3482 -1.88159 -48.1114 
149 1 1 28.1904 -1.34343 -47.3454 
147 1 1 26.0401 -0.0247477 -47.5494 
323 1 1 27.2215 -5.30634 -44.5128 
322 1 1 25.9083 -4.58958 -44.1443 
319 1 1 24.9652 -1.69292 -43.6174 
321 1 1 25.9851 -3.88534 -42.7131 
320 1 1 24.8414 -2.90126 -42.5741 
152 1 1 31.5177 -3.09554 -47.6384 
153 1 1 32.4551 -3.54673 -46.4692 
154 1 1 33.8144 -4.19466 -46.9929 
155 1 1 34.697 -4.64708 -45.7674 
158 1 1 35.0698 -4.19278 -42.7639 
156 1 1 35.4051 -3.46026 -45.0918 
157 1 1 36.1021 -4.01203 -43.8974 
151 1 1 30.237 -2.51932 -47.045 
65 1 1 30.4671 -1.38016 -42.4766 
66 1 1 31.6217 -0.501393 -42.4997 
373 1 1 14.8401 0.918905 -44.5393 
372 1 1 15.3594 2.21055 -45.1808 
370 1 1 16.5341 4.2884 -44.7566 
371 1 1 16.2407 2.84807 -44.2332 
369 1 1 17.6696 5.04486 -44.0294 
6 1 1 19.8759 2.34381 -47.7868 
7 1 1 20.1508 3.65852 -47.0525 
8 1 1 21.6121 3.77394 -46.8063 
246 1 1 19.764 0.104155 -44.8951 
9 1 1 21.8956 5.26384 -46.5115 
316 1 1 22.9641 1.55488 -43.1264 
317 1 1 23.9783 0.603169 -43.7995 
10 1 1 23.2814 5.6344 -46.0278 
248 1 1 19.046 1.16657 -42.7613 
146 1 1 26.772 1.02172 -46.6706 
145 1 1 25.8584 2.22208 -46.2934 
144 1 1 26.7527 3.14505 -45.491 
143 1 1 27.4521 2.35322 -44.3617 
142 1 1 28.142 3.31033 -43.3357 
71 1 1 31.6032 4.03616 -46.6202 
70 1 1 31.5288 2.91083 -45.5507 
69 1 1 32.6973 1.87171 -45.5778 
67 1 1 31.6597 0.153614 -43.8927 
68 1 1 32.8346 1.14032 -44.2236 
72 1 1 30.7789 5.23524 -46.2716 
73 1 1 31.4619 6.01366 -45.115 
368 1 1 18.0838 6.40647 -44.5936 
11 1 1 23.5257 7.13145 -45.8878 
366 1 1 19.2614 6.53835 -42.3765 
367 1 1 19.334 6.85332 -43.8732 
12 1 1 24.8817 7.37469 -45.197 
13 1 1 25.1831 6.35468 -44.0972 
14 1 1 26.1681 6.7997 -43.0594 
74 1 1 30.4443 6.77352 -44.2923 
75 1 1 31.0943 7.63563 -43.1702 
299 1 1 17.31 -12.2606 -37.0778 
295 1 1 21.4203 -13.4122 -37.6775 
293 1 1 23.8035 -12.8291 -37.8661 
296 1 1 20.2241 -14.2899 -38.2687 
297 1 1 18.9475 -14.0805 -37.4807 
298 1 1 18.58 -12.6463 -37.8082 
294 1 1 22.7816 -13.8692 -38.2045 
287 1 1 29.7574 -12.596 -41.3368 
286 1 1 28.4459 -12.2543 -42.0768 
290 1 1 27.7055 -12.8117 -38.8502 
291 1 1 26.3365 -12.324 -38.2384 
292 1 1 25.0813 -13.1433 -38.6048 
265 1 1 11.6587 -9.82631 -39.4852 
264 1 1 11.5083 -10.1029 -37.9941 
263 1 1 10.7018 -8.96677 -37.2724 
266 1 1 12.633 -8.73218 -39.8599 
267 1 1 12.7586 -8.55677 -41.3931 
268 1 1 13.6699 -7.35837 -41.7069 
269 1 1 15.1685 -7.58452 -41.2477 
270 1 1 15.879 -6.23724 -41.3092 
271 1 1 17.3248 -6.32911 -40.9272 
300 1 1 16.7979 -10.8996 -37.5241 
301 1 1 17.9581 -9.97796 -37.8982 
302 1 1 17.885 -8.57117 -37.3482 
279 1 1 23.676 -8.8735 -41.5484 
276 1 1 22.4757 -6.13318 -40.9882 
277 1 1 23.4121 -6.88015 -40.0372 
303 1 1 18.9931 -7.55616 -37.704 
304 1 1 18.9315 -6.33505 -36.8128 
288 1 1 29.8561 -11.9955 -39.8863 
289 1 1 28.4932 -11.5812 -39.2434 
278 1 1 24.4027 -7.74037 -40.8153 
167 1 1 26.9779 -8.02764 -37.9995 
166 1 1 28.4447 -7.71444 -37.9342 
165 1 1 28.9472 -7.43998 -39.3424 
169 1 1 25.0002 -8.90478 -36.7031 
168 1 1 26.5166 -8.50401 -36.6172 
164 1 1 30.2943 -6.89566 -39.0689 
163 1 1 31.0751 -6.24477 -40.1958 
332 1 1 33.655 -10.3569 -40.6462 
334 1 1 33.958 -10.8468 -38.0333 
333 1 1 33.3435 -10.0208 -39.1656 
331 1 1 32.6567 -9.62307 -41.6079 
162 1 1 32.5687 -6.0584 -39.8082 
335 1 1 33.6081 -10.3168 -36.6137 
221 1 1 36.9375 -8.28613 -39.0059 
223 1 1 37.3341 -8.85292 -41.4229 
222 1 1 37.7611 -7.93652 -40.2684 
220 1 1 37.4898 -7.4508 -37.8457 
219 1 1 36.3958 -7.13988 -36.8528 
253 1 1 15.6752 -1.65708 -38.1669 
250 1 1 17.741 -0.292093 -41.125 
252 1 1 16.139 -1.31256 -39.5959 
251 1 1 17.5225 -0.67087 -39.7028 
255 1 1 13.6777 -2.58763 -36.7535 
254 1 1 14.1922 -2.03217 -38.1186 
256 1 1 12.1441 -2.64924 -36.7095 
272 1 1 18.1941 -5.07946 -41.1246 
273 1 1 19.6854 -5.52322 -41.0283 
274 1 1 20.6181 -4.32999 -41.0859 
275 1 1 21.9014 -4.81222 -40.3729 
305 1 1 19.5449 -5.02296 -37.3201 
307 1 1 20.3042 -2.6712 -36.5803 
306 1 1 19.332 -3.81351 -36.3579 
310 1 1 21.4011 -0.122289 -37.4119 
61 1 1 27.3118 -3.72005 -39.2339 
60 1 1 26.5522 -3.52116 -37.8973 
63 1 1 28.871 -2.7351 -40.9519 
62 1 1 28.604 -2.99825 -39.4779 
59 1 1 25.2895 -4.32603 -37.5769 
58 1 1 24.9342 -4.07761 -36.1611 
159 1 1 35.7728 -4.81802 -41.5334 
64 1 1 30.1592 -1.98011 -41.045 
161 1 1 33.5147 -5.86904 -41.0075 
160 1 1 34.7113 -5.07345 -40.4546 
87 1 1 31.2 -4.22277 -36.4062 
85 1 1 31.8425 -2.09177 -37.6488 
84 1 1 32.4858 -0.706143 -37.3926 
86 1 1 32.012 -2.9958 -36.4367 
315 1 1 23.5765 1.97025 -41.7679 
314 1 1 22.5936 2.85141 -40.9653 
249 1 1 18.772 0.869549 -41.2638 
313 1 1 22.8601 2.68342 -39.4864 
312 1 1 22.4518 1.25906 -39.2151 
311 1 1 22.246 1.08087 -37.7162 
141 1 1 28.6651 2.5445 -42.0846 
140 1 1 27.4962 1.79057 -41.3719 
139 1 1 28.1077 1.30471 -40.0812 
138 1 1 26.8734 0.872768 -39.2239 
137 1 1 27.1842 0.809607 -37.761 
136 1 1 26.0289 0.437832 -36.8464 
19 1 1 28.44 4.8054 -37.5334 
20 1 1 29.6814 4.72264 -36.6321 
18 1 1 28.4117 5.85601 -38.5668 
15 1 1 26.1738 5.93293 -41.7999 
17 1 1 27.3339 5.48181 -39.6126 
83 1 1 31.994 0.320577 -38.4101 
79 1 1 32.0001 4.93849 -40.1481 
82 1 1 32.3888 1.75047 -38.0957 
81 1 1 31.7503 2.67973 -39.1205 
80 1 1 32.207 4.09507 -38.928 
362 1 1 21.6311 6.30265 -37.8943 
364 1 1 20.5378 6.58441 -40.0695 
365 1 1 20.597 6.5685 -41.6116 
363 1 1 21.9022 6.67229 -39.3053 
361 1 1 22.9261 6.34395 -37.106 
16 1 1 27.2194 6.47054 -40.7339 
78 1 1 32.2651 6.45536 -39.679 
76 1 1 31.5391 6.81152 -42.0649 
77 1 1 31.7552 7.47398 -40.7289 
108 1 1 13.9755 -13.9313 -31.0834 
107 1 1 15.4696 -13.9338 -31.0427 
105 1 1 17.5572 -15.417 -31.2455 
106 1 1 16.0571 -15.2866 -31.4688 
109 1 1 13.339 -12.6863 -30.4601 
104 1 1 18.2096 -16.4615 -32.1091 
103 1 1 19.6782 -16.8252 -31.7814 
102 1 1 20.5297 -15.621 -31.7812 
101 1 1 21.9809 -15.91 -31.4558 
100 1 1 22.9786 -14.8481 -31.7733 
99 1 1 24.331 -15.1495 -31.2151 
98 1 1 25.1161 -13.88 -31.5482 
97 1 1 26.5699 -13.9865 -31.2055 
96 1 1 27.06 -12.5564 -31.1566 
95 1 1 28.5925 -12.4484 -31.0797 
262 1 1 10.8005 -9.09903 -35.7385 
261 1 1 10.2625 -7.85052 -34.9742 
260 1 1 10.5703 -6.50246 -35.6279 
178 1 1 16.1621 -9.40922 -34.1924 
177 1 1 16.8605 -10.6542 -33.5536 
179 1 1 16.4836 -8.12592 -33.4611 
180 1 1 16.2586 -6.87049 -34.1711 
111 1 1 13.2548 -10.1802 -30.3584 
110 1 1 14.1052 -11.3781 -30.7369 
112 1 1 13.8741 -8.79087 -30.3931 
113 1 1 12.8569 -7.70069 -30.2207 
175 1 1 19.136 -11.8156 -33.032 
176 1 1 18.3871 -10.7179 -33.6756 
174 1 1 20.593 -11.4654 -33.112 
171 1 1 22.8623 -9.68834 -35.4946 
173 1 1 21.1028 -11.154 -34.5023 
172 1 1 22.4066 -10.4866 -34.2891 
53 1 1 21.3266 -6.61556 -31.4361 
36 1 1 23.393 -10.5167 -30.2716 
94 1 1 29.2186 -11.0272 -31.2639 
170 1 1 24.359 -9.27756 -35.3641 
93 1 1 28.9854 -10.3958 -32.6145 
91 1 1 29.9458 -8.35759 -34.0279 
32 1 1 26.1841 -6.87868 -32.1347 
34 1 1 24.6928 -8.69786 -31.2147 
33 1 1 25.6853 -7.6075 -30.8663 
31 1 1 27.6387 -6.38979 -32.056 
92 1 1 30.1628 -9.41445 -32.8456 
337 1 1 34.005 -10.4939 -34.1538 
338 1 1 35.2191 -10.3939 -33.1276 
336 1 1 34.4995 -10.8861 -35.5288 
339 1 1 34.8881 -9.94511 -31.6923 
90 1 1 31.0059 -7.311 -34.0704 
340 1 1 34.1076 -8.61561 -31.7566 
341 1 1 33.8837 -8.12748 -30.335 
342 1 1 33.1964 -6.74599 -30.5385 
89 1 1 30.7443 -6.48144 -35.2784 
218 1 1 36.9513 -6.24151 -35.6912 
259 1 1 10.176 -5.37343 -34.6674 
257 1 1 11.7648 -3.74532 -35.7208 
258 1 1 10.2905 -4.0719 -35.4417 
181 1 1 16.0162 -5.68265 -33.2577 
182 1 1 17.3075 -5.15366 -32.6938 
183 1 1 17.1716 -3.85762 -31.8171 
185 1 1 16.6769 -1.38288 -31.8648 
184 1 1 17.2772 -2.58942 -32.6692 
186 1 1 16.7391 -0.168905 -32.741 
309 1 1 21.1822 -0.365198 -35.9186 
54 1 1 22.3441 -5.67473 -32.0948 
55 1 1 22.41 -5.6988 -33.6765 
308 1 1 20.1338 -1.43749 -35.7077 
57 1 1 23.707 -4.82374 -35.7122 
56 1 1 23.3699 -4.65866 -34.2265 
28 1 1 29.2022 -3.29987 -33.4025 
29 1 1 29.0153 -4.46615 -32.4627 
30 1 1 27.8467 -5.33119 -33.0739 
27 1 1 29.9344 -2.09633 -32.8195 
131 1 1 25.3985 -0.76051 -30.8281 
26 1 1 29.5059 -0.819301 -33.5396 
132 1 1 24.6465 -0.457013 -32.1473 
133 1 1 25.7563 -0.226733 -33.1366 
88 1 1 31.6451 -5.19234 -35.3225 
213 1 1 34.122 -2.17121 -31.5964 
217 1 1 35.8765 -5.57755 -34.801 
214 1 1 35.3782 -2.71594 -32.3383 
215 1 1 35.2711 -4.18283 -32.7892 
212 1 1 34.4969 -0.747685 -31.2204 
216 1 1 36.3367 -4.83511 -33.5791 
188 1 1 17.7202 2.31424 -32.4759 
187 1 1 17.3762 0.968206 -31.8455 
189 1 1 18.1896 3.25281 -31.3619 
190 1 1 19.6102 2.87752 -30.9942 
192 1 1 19.9748 5.34306 -30.2143 
357 1 1 23.7138 3.92161 -33.6317 
356 1 1 23.5785 3.37889 -32.2352 
358 1 1 23.8805 5.44498 -33.4985 
360 1 1 22.5478 5.96897 -35.6449 
135 1 1 26.4637 0.42337 -35.4376 
134 1 1 25.2804 0.0621102 -34.5686 
355 1 1 24.4797 4.03315 -31.2135 
25 1 1 30.0099 0.431683 -32.7948 
21 1 1 29.4624 3.72793 -35.5165 
24 1 1 30.1629 1.56119 -33.7839 
22 1 1 30.3949 3.89228 -34.3172 
23 1 1 30.1027 2.92425 -33.1931 
210 1 1 33.644 1.59417 -30.5835 
211 1 1 33.5456 0.113923 -30.4031 
359 1 1 23.7873 6.24873 -34.7606 
44 1 1 16.3475 -12.4199 -27.2581 
43 1 1 17.6852 -12.7437 -26.5829 
42 1 1 18.204 -14.1843 -26.7586 
39 1 1 21.5391 -13.1698 -28.1946 
41 1 1 19.6666 -14.4641 -27.0995 
40 1 1 20.0638 -13.4259 -28.1337 
114 1 1 13.5317 -6.35941 -29.9307 
45 1 1 15.7459 -11.1431 -26.6013 
46 1 1 16.6705 -9.95331 -26.6136 
47 1 1 16.2346 -8.62903 -26.0927 
49 1 1 17.9401 -7.65264 -27.782 
48 1 1 17.3326 -7.50058 -26.3296 
52 1 1 21.1151 -6.54085 -29.8964 
38 1 1 21.7118 -12.0278 -29.175 
37 1 1 23.1323 -11.4231 -29.0793 
50 1 1 19.2232 -6.93061 -28.0889 
51 1 1 19.8427 -7.22487 -29.4253 
35 1 1 24.5694 -9.56348 -29.9787 
343 1 1 32.599 -6.07618 -29.2894 
115 1 1 12.5344 -5.18208 -29.9443 
116 1 1 13.2022 -3.85045 -29.5599 
117 1 1 14.2998 -4.14511 -28.511 
119 1 1 16.0628 -3.37441 -26.9861 
118 1 1 15.1728 -2.97362 -28.159 
121 1 1 17.9622 -2.57193 -25.6011 
120 1 1 17.0839 -2.23993 -26.748 
122 1 1 19.0973 -1.48561 -25.3692 
123 1 1 19.9596 -1.80044 -24.1401 
125 1 1 22.1724 -1.25478 -25.2595 
126 1 1 23.5193 -0.402573 -25.1271 
129 1 1 25.2395 -1.61992 -28.4183 
130 1 1 24.5572 -0.829757 -29.5419 
128 1 1 24.3102 -1.80067 -27.1601 
127 1 1 24.113 -0.458623 -26.5284 
348 1 1 29.9584 -0.291291 -29.0682 
344 1 1 32.2852 -4.61208 -29.6263 
345 1 1 31.4184 -3.84822 -28.6872 
346 1 1 31.0204 -2.54362 -29.3942 
347 1 1 30.3763 -1.61907 -28.3668 
191 1 1 20.0134 3.81585 -29.8054 
354 1 1 24.4788 3.35407 -29.8114 
352 1 1 26.8633 3.56798 -29.174 
351 1 1 27.2339 2.36469 -28.2785 
353 1 1 25.4794 4.08192 -28.8499 
349 1 1 28.7082 0.293611 -28.3143 
350 1 1 28.5333 1.76701 -28.6558 
209 1 1 32.441 2.27408 -30.0888 
208 1 1 32.5062 3.82899 -29.8154 
207 1 1 31.0725 4.51283 -29.7027 
193 1 1 20.4521 6.1633 -29.0216 
195 1 1 21.0511 8.61355 -28.6191 
194 1 1 20.3793 7.62375 -29.5663 
196 1 1 21.1995 9.84329 -29.5465 
198 1 1 23.6647 9.86294 -28.9714 
197 1 1 22.4465 10.6735 -29.1185 
202 1 1 28.5701 10.445 -28.6374 
200 1 1 26.121 10.3297 -28.8639 
201 1 1 27.2411 10.9914 -28.1444 
199 1 1 24.7347 10.8037 -28.4188 
203 1 1 28.4137 8.93502 -28.5162 
204 1 1 29.6915 8.22519 -29.0922 
205 1 1 29.6253 6.71193 -29.2471 
206 1 1 31.0772 6.09442 -29.4143 
124 1 1 21.2957 -1.03149 -24.0596 
ITEM: TIMESTEP
1100000
ITEM: NUMBER OF ATOMS
399
ITEM: BOX BOUNDS
-120.367 120.367
-120.367 120.367
-120.367 120.367
ITEM: ATOMS id mol type x y z 
2 1 1 26.8553 -8.94699 -51.9811 
4 1 1 28.071 -6.86759 -52.8215 
1 1 2 26.971 -10.4612 -51.4488 
3 1 1 28.187 -8.3335 -52.2327 
385 1 1 23.6037 -2.73332 -53.9552 
5 1 1 29.4656 -6.56219 -53.2083 
240 1 1 29.2184 -3.77273 -49.0709 
237 1 1 32.2761 -6.13283 -48.9458 
235 1 1 33.1448 -6.6885 -46.4394 
236 1 1 33.4668 -6.09649 -47.8514 
393 1 1 16.6762 -0.0383109 -51.1903 
391 1 1 18.686 -0.268294 -52.7587 
392 1 1 17.7495 0.662999 -52.0058 
394 1 1 17.1681 -1.20195 -50.3843 
386 1 1 22.4818 -3.65311 -54.6486 
390 1 1 19.6624 0.345662 -53.7524 
389 1 1 20.0742 -0.55615 -54.9124 
388 1 1 20.8403 -1.79676 -54.3823 
387 1 1 21.5129 -2.73521 -55.3373 
243 1 1 25.3191 -3.46165 -49.058 
6 1 1 29.6891 -5.06749 -53.1744 
241 1 1 27.7677 -4.08784 -49.2583 
239 1 1 30.0917 -4.97124 -49.5613 
238 1 1 31.4562 -4.80056 -48.9112 
384 1 1 25.1025 -3.09317 -53.8485 
383 1 1 25.8241 -1.78527 -53.6373 
242 1 1 26.7539 -3.09605 -48.8087 
382 1 1 24.975 -1.17017 -52.5772 
9 1 1 30.5288 -2.59928 -52.5797 
7 1 1 31.07 -4.71404 -53.7347 
8 1 1 31.248 -3.21698 -53.7646 
78 1 1 35.0337 0.366084 -49.959 
77 1 1 35.8112 0.650279 -48.6676 
76 1 1 36.572 -0.496884 -48.0672 
75 1 1 36.8823 -0.332569 -46.5606 
379 1 1 23.6263 0.851767 -50.9063 
380 1 1 25.0006 0.213229 -50.5731 
378 1 1 22.7367 1.19326 -49.732 
377 1 1 21.3365 1.63344 -50.1128 
381 1 1 25.7996 -0.143384 -51.8182 
10 1 1 30.4311 -1.0658 -52.7462 
11 1 1 29.9915 -0.331545 -51.4791 
12 1 1 29.6929 1.09519 -51.961 
13 1 1 29.1973 1.82876 -50.7331 
14 1 1 28.4478 3.11574 -51.1113 
79 1 1 34.2925 1.66477 -50.3319 
81 1 1 32.6032 3.49505 -49.3996 
80 1 1 33.471 2.25835 -49.111 
284 1 1 23.6082 -11.9018 -44.5618 
285 1 1 24.1496 -12.9048 -43.5656 
399 1 2 15.1776 -5.58781 -46.3216 
279 1 1 21.2889 -6.68476 -44.6733 
278 1 1 20.5271 -6.38227 -43.3584 
277 1 1 19.0717 -6.69388 -43.4988 
276 1 1 18.2827 -6.5705 -42.1727 
280 1 1 22.8865 -6.72421 -44.6849 
281 1 1 23.5504 -8.01138 -44.1241 
282 1 1 23.2564 -9.36244 -44.7918 
283 1 1 23.6073 -10.5108 -43.9163 
329 1 1 27.9778 -7.58795 -43.4404 
328 1 1 27.7771 -6.09802 -43.7006 
327 1 1 27.2343 -5.74159 -45.0901 
326 1 1 26.8812 -4.26252 -45.1349 
234 1 1 34.5192 -6.76456 -45.6871 
233 1 1 34.3857 -7.00231 -44.1854 
232 1 1 35.6947 -7.18815 -43.3982 
231 1 1 35.4425 -7.51003 -41.8847 
230 1 1 36.8566 -7.70135 -41.2246 
395 1 1 16.0854 -1.89121 -49.5447 
398 1 1 16.1036 -5.08398 -47.3883 
397 1 1 15.456 -3.97607 -48.2856 
396 1 1 16.5318 -3.25435 -49.0192 
249 1 1 18.6917 -1.79698 -45.6139 
247 1 1 20.8635 -2.54598 -46.6954 
245 1 1 23.1609 -3.15738 -47.8076 
246 1 1 22.2393 -2.0481 -47.136 
248 1 1 20.0621 -1.40106 -46.2039 
275 1 1 16.768 -6.93724 -42.3104 
244 1 1 24.4592 -2.47085 -48.3392 
149 1 1 27.6159 0.820063 -47.426 
150 1 1 27.9082 -0.52872 -46.7274 
151 1 1 29.3905 -0.896114 -46.7796 
152 1 1 29.7711 -1.6793 -45.5611 
325 1 1 25.5258 -3.99807 -44.4155 
324 1 1 25.1223 -2.62557 -43.9576 
153 1 1 31.1986 -2.16715 -45.7503 
323 1 1 23.6461 -2.56484 -43.5609 
74 1 1 35.6907 0.338859 -45.8856 
155 1 1 33.2434 -2.59004 -44.3398 
154 1 1 31.7378 -2.51175 -44.3881 
156 1 1 33.8079 -3.06102 -42.9943 
158 1 1 35.6206 -3.32393 -41.2641 
157 1 1 35.3357 -2.92008 -42.7377 
73 1 1 36.1537 0.967867 -44.5742 
159 1 1 37.0578 -3.1328 -40.7223 
250 1 1 17.8351 -0.810862 -44.8541 
252 1 1 15.6582 -0.442547 -43.4524 
251 1 1 16.434 -1.35611 -44.4064 
147 1 1 25.9536 1.14291 -45.5866 
376 1 1 20.7259 2.58467 -49.1222 
374 1 1 19.6251 2.73941 -46.8246 
375 1 1 20.7108 2.08895 -47.6983 
146 1 1 24.6284 1.68716 -45.1498 
144 1 1 23.5381 2.41254 -43.0031 
145 1 1 24.3482 1.34639 -43.6719 
143 1 1 24.2303 3.79237 -42.8752 
142 1 1 23.5588 4.75883 -41.8783 
373 1 1 19.7983 2.44407 -45.349 
372 1 1 18.7509 2.99432 -44.4781 
371 1 1 19.0559 2.9125 -42.9861 
370 1 1 18.2398 3.90042 -42.2121 
148 1 1 26.2598 1.33501 -47.0974 
87 1 1 28.9329 1.67692 -43.2883 
88 1 1 28.1867 2.04486 -42.0278 
15 1 1 27.5314 3.63723 -50.0348 
83 1 1 31.1858 3.0185 -47.3898 
82 1 1 32.0819 3.98266 -48.1047 
69 1 1 34.066 1.71434 -40.843 
85 1 1 30.0529 2.71004 -45.1771 
84 1 1 31.1211 3.50401 -45.9302 
86 1 1 29.7054 2.96488 -43.7537 
72 1 1 35.0691 1.40317 -43.6095 
71 1 1 35.8351 2.0784 -42.5588 
70 1 1 34.962 2.85949 -41.4764 
20 1 1 27.6934 6.11253 -45.2688 
19 1 1 26.6333 5.86792 -46.36 
16 1 1 26.9518 5.03175 -50.1982 
17 1 1 26.3125 5.55284 -48.9329 
18 1 1 27.2161 5.38927 -47.7108 
296 1 1 16.2213 -11.0981 -35.2326 
295 1 1 16.4904 -11.2601 -36.7307 
289 1 1 22.1801 -12.7911 -39.6414 
293 1 1 18.1533 -11.503 -38.4641 
292 1 1 19.4701 -12.2452 -38.7341 
294 1 1 17.9348 -11.6198 -36.9738 
286 1 1 23.5973 -12.7272 -42.1038 
287 1 1 23.775 -14.0417 -41.1987 
179 1 1 26.2378 -16.8459 -37.2508 
288 1 1 23.3972 -13.7803 -39.7177 
333 1 1 29.9788 -10.8065 -40.2138 
334 1 1 30.0864 -10.982 -38.7053 
297 1 1 14.6917 -10.9626 -35.0207 
53 1 1 19.4493 -7.07029 -37.2308 
54 1 1 20.2923 -6.20684 -38.1794 
291 1 1 20.655 -11.6885 -37.9412 
290 1 1 21.9529 -12.4771 -38.1635 
55 1 1 21.4751 -7.09343 -38.5279 
52 1 1 18.3139 -6.31139 -36.5277 
51 1 1 17.5012 -7.19228 -35.6536 
330 1 1 28.7617 -7.77724 -42.1242 
56 1 1 22.3479 -6.36029 -39.5313 
57 1 1 23.4229 -7.31898 -39.9828 
58 1 1 24.6593 -6.84414 -40.7214 
331 1 1 29.3453 -9.20167 -42.0291 
332 1 1 29.5233 -9.4077 -40.5368 
335 1 1 31.4354 -10.3676 -38.2346 
229 1 1 36.5474 -8.05223 -39.7912 
227 1 1 36.802 -7.60812 -37.4008 
228 1 1 37.5217 -7.63037 -38.7188 
226 1 1 37.8379 -7.13552 -36.3396 
225 1 1 37.2608 -6.77409 -34.9829 
224 1 1 38.3475 -6.12342 -34.2067 
270 1 1 14.9766 -3.49638 -37.3379 
271 1 1 15.8688 -3.95324 -38.4216 
274 1 1 16.1782 -6.86295 -40.8572 
273 1 1 16.5193 -5.59324 -40.0617 
272 1 1 15.669 -5.37992 -38.842 
269 1 1 15.2441 -4.13595 -35.9517 
320 1 1 21.6181 -2.21475 -40.6935 
319 1 1 20.2151 -1.76461 -40.5348 
321 1 1 21.7666 -3.03831 -42.0066 
318 1 1 19.7906 -0.75649 -39.4766 
317 1 1 19.9246 -1.20515 -38.0469 
59 1 1 25.2044 -5.56239 -40.0687 
322 1 1 23.2401 -3.2824 -42.2577 
60 1 1 26.5358 -5.13098 -40.6742 
61 1 1 27.2557 -4.11874 -39.797 
95 1 1 24.2769 -2.2427 -36.5617 
94 1 1 25.2275 -1.22438 -37.2541 
65 1 1 30.9645 -0.873359 -39.1019 
64 1 1 30.1421 -1.73596 -40.0088 
63 1 1 29.2186 -2.84803 -39.4088 
62 1 1 28.5238 -3.67946 -40.4908 
164 1 1 33.6404 -3.89433 -36.0932 
167 1 1 31.2668 -5.45714 -35.8858 
163 1 1 34.7804 -2.90378 -36.2531 
162 1 1 36.0253 -3.38228 -36.9817 
161 1 1 35.9529 -2.88615 -38.4329 
160 1 1 36.9361 -3.60838 -39.3004 
253 1 1 16.3333 -0.34164 -42.0439 
255 1 1 16.0377 0.761828 -39.7365 
256 1 1 15.1455 1.82726 -39.0388 
257 1 1 15.4609 2.10014 -37.5945 
254 1 1 15.5472 0.608442 -41.2321 
141 1 1 23.2717 3.9572 -40.6248 
139 1 1 23.0837 3.9695 -38.1368 
138 1 1 23.6396 4.98368 -37.1674 
140 1 1 22.9384 4.81212 -39.4285 
315 1 1 19.5602 -0.661531 -35.6213 
316 1 1 19.5655 -0.114275 -37.0407 
89 1 1 27.4128 0.902621 -41.3562 
92 1 1 25.6038 1.01108 -37.9748 
91 1 1 25.9785 0.33898 -39.2752 
93 1 1 24.7022 0.175207 -37.0981 
90 1 1 26.8538 1.36587 -40.0078 
23 1 1 27.2713 6.53925 -41.4787 
24 1 1 28.3545 6.81783 -40.4126 
25 1 1 28.0954 6.19291 -39.0501 
66 1 1 31.7398 0.205999 -39.8904 
67 1 1 32.3674 1.25864 -39.0184 
68 1 1 33.0577 2.30924 -39.8862 
367 1 1 18.7296 4.61941 -38.5548 
366 1 1 18.0244 5.4844 -37.478 
368 1 1 17.9482 4.77926 -39.8729 
369 1 1 18.5623 3.65719 -40.7131 
365 1 1 18.5328 5.10032 -36.1427 
21 1 1 26.9562 6.40144 -43.9713 
22 1 1 27.8989 6.67088 -42.8025 
188 1 1 17.17 -15.1706 -33.1202 
189 1 1 17.8273 -14.2141 -32.1332 
190 1 1 17.0337 -14.4207 -30.7892 
191 1 1 17.5303 -13.4068 -29.8215 
185 1 1 18.5077 -16.7875 -36.4725 
186 1 1 17.6443 -16.5683 -35.1992 
183 1 1 21.0074 -16.6731 -37.0507 
184 1 1 19.9236 -16.8553 -35.9991 
182 1 1 22.3278 -16.6576 -36.3462 
106 1 1 23.1232 -14.8582 -31.8805 
105 1 1 22.4052 -13.7792 -32.7583 
107 1 1 22.1517 -15.6636 -31.083 
187 1 1 17.9717 -15.2605 -34.472 
180 1 1 24.8667 -17.0656 -36.6485 
181 1 1 23.5697 -16.6363 -37.3204 
178 1 1 27.3334 -16.7749 -36.1819 
177 1 1 27.3488 -15.5595 -35.2152 
298 1 1 14.4339 -11.0987 -33.5137 
299 1 1 15.0652 -10.2066 -32.5976 
300 1 1 14.1051 -9.74491 -31.3948 
301 1 1 14.8558 -8.56745 -30.8249 
302 1 1 13.9977 -7.59819 -30.0515 
50 1 1 18.5434 -7.75834 -34.5995 
48 1 1 19.6803 -7.42944 -32.2989 
49 1 1 18.9255 -6.78264 -33.5042 
47 1 1 18.8693 -8.40143 -31.4394 
46 1 1 19.321 -8.58784 -30.0003 
104 1 1 23.5837 -12.9367 -33.3218 
103 1 1 22.8441 -11.9064 -34.1799 
102 1 1 23.8464 -10.9062 -34.7793 
101 1 1 23.4346 -9.45447 -34.6635 
175 1 1 28.6741 -14.1182 -33.6441 
176 1 1 28.7456 -15.2365 -34.6884 
173 1 1 28.7215 -11.4999 -33.5828 
174 1 1 28.4234 -12.7978 -34.2778 
100 1 1 24.2478 -8.41554 -35.4297 
99 1 1 23.7104 -7.01643 -35.3677 
172 1 1 28.4705 -10.21 -34.3855 
336 1 1 31.51 -10.7077 -36.7403 
337 1 1 32.7722 -9.96641 -36.3011 
338 1 1 32.9118 -9.93429 -34.7195 
340 1 1 34.2077 -8.47746 -33.0755 
339 1 1 34.0487 -8.92875 -34.522 
341 1 1 32.8839 -7.94737 -32.6186 
171 1 1 28.4541 -8.90482 -33.5969 
223 1 1 38.0654 -5.81719 -32.7012 
268 1 1 14.3341 -3.62255 -34.8336 
267 1 1 14.5175 -2.08417 -34.5252 
266 1 1 13.7424 -1.6523 -33.2159 
265 1 1 14.1782 -0.277782 -32.6769 
264 1 1 13.4634 0.279627 -31.4806 
308 1 1 17.0668 -1.98231 -28.3267 
310 1 1 18.2724 -0.821529 -30.1256 
131 1 1 24.5687 0.708689 -31.1468 
130 1 1 23.6612 -0.3936 -31.6483 
129 1 1 23.1734 -1.23059 -30.4983 
128 1 1 22.1632 -2.34533 -30.8623 
132 1 1 24.5006 1.83911 -32.1515 
309 1 1 18.0147 -0.860839 -28.6483 
96 1 1 25.004 -3.59016 -36.3956 
98 1 1 24.7028 -6.02053 -35.7848 
97 1 1 24.0252 -4.60458 -35.8468 
32 1 1 28.3261 -0.0663047 -34.6098 
34 1 1 27.9025 -2.31499 -33.4179 
33 1 1 27.8635 -0.755305 -33.3484 
31 1 1 28.3857 1.4283 -34.2293 
35 1 1 27.2688 -3.02874 -32.27 
165 1 1 32.3647 -3.26374 -35.4147 
166 1 1 31.3401 -4.26084 -34.9538 
169 1 1 29.9248 -7.33443 -34.7303 
168 1 1 29.9803 -6.30614 -35.844 
170 1 1 28.4882 -7.76301 -34.4688 
222 1 1 36.997 -4.78755 -32.5788 
221 1 1 36.6765 -4.43765 -31.1453 
220 1 1 35.6432 -3.45242 -30.7126 
218 1 1 34.658 -2.4326 -28.5801 
217 1 1 34.5007 -2.63954 -27.0351 
219 1 1 35.6801 -3.43189 -29.2179 
258 1 1 14.4142 2.93004 -36.9781 
263 1 1 13.6716 1.78045 -31.3684 
259 1 1 14.4983 2.76179 -35.4676 
260 1 1 14.0879 3.95895 -34.6699 
262 1 1 13.4868 2.3758 -32.7946 
261 1 1 14.1699 3.68139 -33.145 
137 1 1 23.6525 4.52458 -35.7228 
312 1 1 19.3877 0.661365 -32.083 
313 1 1 19.4233 -0.416115 -33.1941 
314 1 1 19.4256 0.384476 -34.5051 
360 1 1 20.1374 6.45754 -31.4413 
361 1 1 18.6291 6.05886 -31.3617 
133 1 1 25.5215 2.94047 -32.0714 
135 1 1 24.4553 4.74562 -33.3705 
311 1 1 19.3954 0.118969 -30.6296 
359 1 1 20.9919 5.97798 -30.339 
136 1 1 24.2309 5.4854 -34.6914 
30 1 1 28.6298 2.31544 -35.4114 
134 1 1 25.4986 3.69438 -33.3354 
29 1 1 28.9205 3.80884 -35.2267 
28 1 1 29.1716 4.36071 -36.6294 
26 1 1 29.1641 6.44495 -38.0873 
27 1 1 29.0875 5.85141 -36.6779 
364 1 1 17.9079 5.97854 -35.079 
363 1 1 18.5062 5.57231 -33.7484 
362 1 1 17.8111 6.41673 -32.6885 
114 1 1 20.1796 -15.0463 -25.4414 
112 1 1 18.8114 -16.1428 -27.1989 
113 1 1 19.3602 -14.7972 -26.7732 
192 1 1 16.3875 -12.8412 -29.0257 
109 1 1 21.8473 -17.2859 -29.228 
110 1 1 20.7946 -16.2838 -28.8142 
108 1 1 22.8398 -16.4147 -29.9491 
111 1 1 19.9452 -16.9874 -27.7195 
303 1 1 14.8262 -6.32331 -29.767 
304 1 1 14.0476 -5.13855 -29.1733 
193 1 1 16.8818 -12.1806 -27.7166 
194 1 1 15.6677 -11.5408 -26.9557 
197 1 1 17.5546 -9.033 -24.6865 
199 1 1 18.6835 -6.90509 -23.7897 
195 1 1 16.0166 -10.9096 -25.5593 
196 1 1 17.1916 -9.98163 -25.9051 
198 1 1 18.4647 -7.84801 -25.0206 
41 1 1 25.2097 -9.38122 -29.097 
45 1 1 20.8207 -8.94317 -29.9862 
42 1 1 23.7674 -8.82139 -29.1569 
44 1 1 21.3558 -9.31091 -28.5201 
43 1 1 22.7898 -9.69351 -28.368 
123 1 1 23.5452 -6.08096 -25.9163 
40 1 1 26.177 -8.67447 -29.9627 
39 1 1 25.8693 -7.1311 -29.9302 
38 1 1 26.5899 -6.63309 -31.1566 
37 1 1 26.6393 -5.0796 -31.0452 
36 1 1 27.0896 -4.47385 -32.3478 
347 1 1 29.5958 -3.94901 -27.0962 
345 1 1 30.6587 -5.00192 -29.1587 
346 1 1 30.8546 -4.26107 -27.9119 
342 1 1 32.9591 -6.91931 -31.4737 
343 1 1 31.6403 -6.3412 -31.0314 
344 1 1 32.0107 -5.41999 -29.8389 
305 1 1 14.9846 -3.94633 -29.3206 
306 1 1 14.6248 -2.7561 -28.3479 
307 1 1 15.6337 -1.58583 -28.6862 
200 1 1 19.6625 -5.7961 -24.1864 
201 1 1 19.8876 -4.81431 -23.0819 
125 1 1 22.6111 -4.47724 -27.6007 
126 1 1 22.9486 -3.84232 -28.9356 
127 1 1 21.7372 -3.27608 -29.6636 
124 1 1 23.9075 -5.00011 -26.9346 
202 1 1 21.1415 -4.10074 -23.4687 
354 1 1 22.298 0.873893 -26.7413 
353 1 1 23.4661 0.193521 -25.9495 
204 1 1 23.1187 -3.09924 -22.4844 
348 1 1 28.5634 -3.02777 -27.7166 
352 1 1 24.3816 -0.375933 -26.9454 
350 1 1 26.4382 -1.6924 -27.2518 
349 1 1 27.7192 -2.2962 -26.665 
351 1 1 25.5754 -0.984407 -26.2195 
214 1 1 33.053 -0.370129 -24.2408 
213 1 1 31.5036 -0.644923 -24.4511 
216 1 1 33.5778 -1.61933 -26.3036 
215 1 1 33.9109 -1.53607 -24.7654 
355 1 1 22.7286 2.20577 -27.2911 
356 1 1 21.6763 2.7193 -28.2764 
357 1 1 21.8826 4.16871 -28.7456 
358 1 1 20.9031 4.52368 -29.9393 
212 1 1 30.6611 0.430366 -23.7726 
210 1 1 28.9382 -1.07215 -22.7715 
211 1 1 29.1356 0.18345 -23.6266 
116 1 1 20.1977 -12.8281 -23.9667 
115 1 1 20.9215 -13.8059 -24.9522 
117 1 1 21.1803 -11.8573 -23.3928 
118 1 1 22.1035 -11.087 -24.2986 
119 1 1 23.0123 -9.93891 -23.6715 
120 1 1 23.8452 -9.25319 -24.7466 
121 1 1 24.3268 -7.85438 -24.3005 
122 1 1 24.7863 -6.847 -25.4223 
203 1 1 21.6814 -3.48433 -22.1592 
205 1 1 23.9027 -2.648 -21.23 
206 1 1 25.4041 -2.52416 -21.4983 
207 1 1 26.2455 -2.3397 -20.3012 
208 1 1 27.5743 -2.16029 -20.886 
209 1 1 27.5855 -1.09546 -22.0284 
ITEM: TIMESTEP
1200000
ITEM: NUMBER OF ATOMS
399
ITEM: BOX BOUNDS
-120.367 120.367
-120.367 120.367
-120.367 120.367
ITEM: ATOMS id mol type x y z 
241 1 1 28.3036 -5.66217 -49.4673 
396 1 1 11.4783 -0.437664 -45.2744 
394 1 1 12.7634 1.24346 -46.668 
243 1 1 25.7502 -5.76918 -49.3417 
242 1 1 26.9815 -4.88821 -49.2023 
244 1 1 25.6539 -6.68406 -48.0717 
240 1 1 29.3605 -5.10601 -48.5065 
331 1 1 26.1366 -1.17624 -50.2166 
332 1 1 27.6336 -1.526 -49.9406 
333 1 1 28.5461 -0.691721 -50.7714 
239 1 1 30.664 -5.92183 -48.439 
335 1 1 31.1328 -0.376177 -51.1611 
334 1 1 30.0352 -1.04143 -50.31 
336 1 1 32.4271 -1.02629 -50.5813 
337 1 1 33.6278 -0.341899 -51.229 
338 1 1 35.0415 -0.727862 -50.6848 
339 1 1 35.1799 -0.659648 -49.1893 
147 1 1 39.7863 -3.5689 -48.3739 
148 1 1 39.8677 -4.93175 -47.6724 
146 1 1 41.1106 -3.00474 -48.8904 
145 1 1 41.0065 -1.86284 -49.9143 
144 1 1 40.5135 -0.556301 -49.3174 
340 1 1 36.3293 -1.4198 -48.6031 
392 1 1 15.3182 1.65296 -46.7263 
388 1 1 20.0619 3.09021 -47.4436 
386 1 1 22.3884 4.16971 -47.9938 
390 1 1 17.7022 2.23353 -46.9194 
330 1 1 25.3417 -1.75999 -48.9526 
385 1 1 23.716 4.71044 -47.6013 
139 1 1 37.196 3.38641 -49.6289 
141 1 1 39.4161 2.84272 -50.8396 
140 1 1 38.5522 3.86168 -50.1241 
142 1 1 39.394 1.60459 -49.8781 
143 1 1 40.1993 0.480885 -50.4326 
255 1 1 14.5299 -9.63217 -42.7922 
254 1 1 15.8594 -9.03198 -43.3069 
253 1 1 15.7105 -7.90027 -44.3677 
252 1 1 17.0723 -7.33367 -44.9542 
251 1 1 17.0582 -6.33692 -46.082 
294 1 1 24.365 -7.56328 -42.4658 
295 1 1 23.7927 -8.67186 -41.6402 
296 1 1 22.338 -8.72589 -41.7876 
293 1 1 25.8881 -7.69115 -42.6654 
292 1 1 26.367 -6.60353 -43.6459 
291 1 1 27.8182 -6.70315 -44.0283 
289 1 1 30.1623 -6.77057 -42.9437 
290 1 1 28.6774 -6.34229 -42.7785 
236 1 1 33.0414 -5.90121 -45.3118 
234 1 1 33.9303 -8.16074 -44.5779 
233 1 1 35.2488 -8.63963 -43.9749 
232 1 1 35.7903 -7.69815 -42.8951 
231 1 1 37.1998 -8.06057 -42.4234 
229 1 1 38.5946 -7.97098 -40.3508 
230 1 1 37.3507 -7.44105 -41.0492 
398 1 1 9.25244 -0.227827 -44.3002 
397 1 1 10.654 -0.715482 -44.0165 
399 1 2 8.25524 -0.685338 -43.2525 
393 1 1 14.0402 1.50413 -45.9198 
395 1 1 11.5245 1.01589 -45.8231 
250 1 1 18.4018 -5.74995 -46.571 
321 1 1 15.8221 -3.03035 -43.5576 
322 1 1 16.7034 -1.86011 -43.7901 
246 1 1 23.1541 -6.54032 -47.6212 